REMARK  Name = /home/user/ClaudeCode/cdk2_ensemble_qsar/structures/1AQ1_native_ligand.pdb
REMARK  5 active torsions:
REMARK  status: ('A' for Active; 'I' for Inactive)
REMARK    1  A    between atoms: C23_4  and  N4_34
REMARK    2  A    between atoms: C22_5  and  O6_32
REMARK    3  A    between atoms: C21_6  and  C26_7
REMARK    4  A    between atoms: O6_32  and  C27_33
REMARK    5  A    between atoms: N4_34  and  C28_35
REMARK                            x       y       z     vdW  Elec       q    Type
REMARK                         _______ _______ _______ _____ _____    ______ ____
ROOT
ATOM      1 O4   TU      1      99.206  99.705  81.202  0.00  0.00    +0.000 OA
ATOM      2 C25  TU      1      99.261 100.021  79.819  0.00  0.00    +0.000 C 
ATOM      3 C24  TU      1      98.771  98.846  78.936  0.00  0.00    +0.000 C 
ATOM      4 C23  TU      1      98.443  97.639  79.819  0.00  0.00    +0.000 C 
ATOM      5 C22  TU      1      99.671  97.303  80.712  0.00  0.00    +0.000 C 
ATOM      6 C21  TU      1      99.754  98.503  81.714  0.00  0.00    +0.000 C 
ATOM      7 C26  TU      1      98.873  98.154  82.899  0.00  0.00    +0.000 C 
ATOM      8 N2   TU      1     101.149  98.763  82.167  0.00  0.00    +0.000 N 
ATOM      9 C18  TU      1     101.951  99.664  81.420  0.00  0.00    +0.000 A 
ATOM     10 C19  TU      1     101.722 100.386  80.319  0.00  0.00    +0.000 A 
ATOM     11 C6   TU      1     102.722 101.215  79.724  0.00  0.00    +0.000 A 
ATOM     12 C7   TU      1     104.009 101.223  80.441  0.00  0.00    +0.000 A 
ATOM     13 C10  TU      1     104.225 100.514  81.518  0.00  0.00    +0.000 A 
ATOM     14 C11  TU      1     103.237  99.676  82.085  0.00  0.00    +0.000 A 
ATOM     15 C12  TU      1     103.166  98.820  83.207  0.00  0.00    +0.000 A 
ATOM     16 C17  TU      1     101.861  98.240  83.256  0.00  0.00    +0.000 A 
ATOM     17 C16  TU      1     101.543  97.360  84.243  0.00  0.00    +0.000 A 
ATOM     18 C15  TU      1     102.461  97.034  85.196  0.00  0.00    +0.000 A 
ATOM     19 C14  TU      1     103.777  97.585  85.172  0.00  0.00    +0.000 A 
ATOM     20 C13  TU      1     104.089  98.462  84.160  0.00  0.00    +0.000 A 
ATOM     21 C9   TU      1     105.672 100.705  82.010  0.00  0.00    +0.000 C 
ATOM     22 N1   TU      1     106.125 101.634  80.996  0.00  0.00    +0.000 NA
ATOM     23 C8   TU      1     105.241 101.977  80.048  0.00  0.00    +0.000 C 
ATOM     24 O5   TU      1     105.406 102.730  79.107  0.00  0.00    +0.000 OA
ATOM     25 C5   TU      1     102.190 101.801  78.560  0.00  0.00    +0.000 A 
ATOM     26 C20  TU      1     100.852 101.327  78.444  0.00  0.00    +0.000 A 
ATOM     27 C1   TU      1      99.989 101.744  77.428  0.00  0.00    +0.000 A 
ATOM     28 C2   TU      1     100.488 102.626  76.497  0.00  0.00    +0.000 A 
ATOM     29 C3   TU      1     101.819 103.095  76.594  0.00  0.00    +0.000 A 
ATOM     30 C4   TU      1     102.633 102.699  77.614  0.00  0.00    +0.000 A 
ATOM     31 N3   TU      1     100.602 100.472  79.461  0.00  0.00    +0.000 N 
ENDROOT
BRANCH   4  32
ATOM     32 N4   TU      1      98.077  96.426  78.892  0.00  0.00    +0.000 NA
ATOM     33 C28  TU      1      96.600  96.236  78.845  0.00  0.00    +0.000 C 
ATOM     34  H   TU      1      98.423  96.607  77.950  0.00  0.00    +0.000 HD
ENDBRANCH   4  32
BRANCH   5  35
ATOM     35 O6   TU      1     100.818  97.318  79.840  0.00  0.00    +0.000 OA
ATOM     36 C27  TU      1     101.922  96.646  80.415  0.00  0.00    +0.000 C 
ENDBRANCH   5  35
TORSDOF 2
