REMARK SMILES Cc1c(N)cc(C(=O)NCC(F)F)nc1C1=C(N2CCC(OCCC[C@@H]3C[C@H]4CCC[C@@H]4N3)CC2)COC1=O
REMARK SMILES IDX 18 1 19 2 20 3 21 4 34 5 35 6 17 7 16 8 38 9 36 10 37 11
REMARK SMILES IDX 39 12 15 13 2 14 3 15 14 16 5 17 6 18 1 19 4 20 7 23 9 24
REMARK SMILES IDX 8 25 10 27 11 28 12 29 13 30 22 31 23 32 24 33 25 34 26 35
REMARK SMILES IDX 27 36 33 37 28 38 32 39 29 40 31 41 30 42
REMARK H PARENT 4 21 4 22 9 26 33 43
ROOT
ATOM      1  N   UNL     1      -2.260  -1.692  -0.723  1.00  0.00    -0.371 N 
ATOM      2  C   UNL     1      -1.213  -2.595  -0.198  1.00  0.00     0.119 C 
ATOM      3  C   UNL     1      -0.316  -1.888   0.810  1.00  0.00     0.053 C 
ATOM      4  C   UNL     1       0.414  -0.715   0.153  1.00  0.00     0.121 C 
ATOM      5  C   UNL     1      -0.460  -0.018  -0.892  1.00  0.00     0.053 C 
ATOM      6  C   UNL     1      -1.947  -0.252  -0.653  1.00  0.00     0.119 C 
ENDROOT
BRANCH   1   7
ATOM      7  C   UNL     1      -3.402  -2.195  -1.367  1.00  0.00     0.069 C 
ATOM      8  C   UNL     1      -4.567  -1.617  -1.702  1.00  0.00     0.108 C 
ATOM      9  C   UNL     1      -5.378  -2.626  -2.401  1.00  0.00     0.342 C 
ATOM     10  C   UNL     1      -3.446  -3.626  -1.814  1.00  0.00     0.287 C 
ATOM     11  O   UNL     1      -4.689  -3.791  -2.479  1.00  0.00    -0.456 OA
ATOM     12  O   UNL     1      -6.491  -2.450  -2.863  1.00  0.00    -0.246 OA
BRANCH   8  13
ATOM     13  C   UNL     1      -5.077  -0.278  -1.422  1.00  0.00     0.085 A 
ATOM     14  C   UNL     1      -5.343   0.676  -2.422  1.00  0.00    -0.001 A 
ATOM     15  C   UNL     1      -5.883   1.915  -2.024  1.00  0.00     0.039 A 
ATOM     16  N   UNL     1      -5.293  -0.049  -0.103  1.00  0.00    -0.242 NA
ATOM     17  C   UNL     1      -6.196   2.118  -0.681  1.00  0.00     0.060 A 
ATOM     18  C   UNL     1      -5.866   1.133   0.232  1.00  0.00     0.130 A 
ATOM     19  C   UNL     1      -5.109   0.376  -3.880  1.00  0.00     0.049 C 
BRANCH  15  20
ATOM     20  N   UNL     1      -6.315   2.870  -2.961  1.00  0.00    -0.398 N 
ATOM     21  H   UNL     1      -6.474   3.797  -2.577  1.00  0.00     0.156 HD
ATOM     22  H   UNL     1      -5.776   2.907  -3.818  1.00  0.00     0.156 HD
ENDBRANCH  15  20
BRANCH  18  23
ATOM     23  C   UNL     1      -6.153   1.329   1.690  1.00  0.00     0.270 C 
ATOM     24  N   UNL     1      -5.746   0.282   2.490  1.00  0.00    -0.345 N 
ATOM     25  O   UNL     1      -6.694   2.343   2.112  1.00  0.00    -0.268 OA
ATOM     26  H   UNL     1      -5.427  -0.546   1.987  1.00  0.00     0.164 HD
BRANCH  24  27
ATOM     27  C   UNL     1      -6.168   0.155   3.877  1.00  0.00     0.189 C 
BRANCH  27  28
ATOM     28  C   UNL     1      -7.407  -0.724   4.056  1.00  0.00     0.361 C 
ATOM     29  F   UNL     1      -8.458  -0.249   3.338  1.00  0.00    -0.208 F 
ATOM     30  F   UNL     1      -7.149  -1.978   3.595  1.00  0.00    -0.208 F 
ENDBRANCH  27  28
ENDBRANCH  24  27
ENDBRANCH  18  23
ENDBRANCH   8  13
ENDBRANCH   1   7
BRANCH   4  31
ATOM     31  O   UNL     1       1.587  -1.182  -0.528  1.00  0.00    -0.378 OA
BRANCH  31  32
ATOM     32  C   UNL     1       2.732  -1.343   0.307  1.00  0.00     0.160 C 
BRANCH  32  33
ATOM     33  C   UNL     1       3.596  -0.086   0.251  1.00  0.00     0.030 C 
BRANCH  33  34
ATOM     34  C   UNL     1       4.879  -0.266   1.065  1.00  0.00     0.021 C 
BRANCH  34  35
ATOM     35  C   UNL     1       5.786   0.972   1.037  1.00  0.00     0.054 C 
ATOM     36  C   UNL     1       6.411   1.264  -0.355  1.00  0.00     0.024 C 
ATOM     37  N   UNL     1       6.931   0.787   1.986  1.00  0.00    -0.311 NA
ATOM     38  C   UNL     1       7.866   0.959  -0.113  1.00  0.00     0.007 C 
ATOM     39  C   UNL     1       8.040   1.443   1.312  1.00  0.00     0.057 C 
ATOM     40  C   UNL     1       9.012   1.650  -0.814  1.00  0.00     0.005 C 
ATOM     41  C   UNL     1       9.495   1.100   1.557  1.00  0.00     0.019 C 
ATOM     42  C   UNL     1      10.157   1.521   0.222  1.00  0.00     0.002 C 
ATOM     43  H   UNL     1       7.139  -0.209   2.079  1.00  0.00     0.123 HD
ENDBRANCH  34  35
ENDBRANCH  33  34
ENDBRANCH  32  33
ENDBRANCH  31  32
ENDBRANCH   4  31
TORSDOF 11
