REMARK  Name = /home/user/ClaudeCode/dprE1_reproduction/data/prep/4KW5_cofactor.pdb
REMARK                            x       y       z     vdW  Elec       q    Type
REMARK                         _______ _______ _______ _____ _____    ______ ____
ATOM      1  P   UNL     1       3.274  -7.542  41.360  0.00  0.00    +0.000 P 
ATOM      2  O   UNL     1       4.042  -8.605  42.102  0.00  0.00    +0.000 OA
ATOM      3  O   UNL     1       1.786  -7.395  41.527  0.00  0.00    +0.000 OA
ATOM      4  O   UNL     1       3.938  -6.127  41.682  0.00  0.00    +0.000 OA
ATOM      5  C   UNL     1       5.341  -6.022  41.497  0.00  0.00    +0.000 C 
ATOM      6  C   UNL     1       5.732  -4.563  41.393  0.00  0.00    +0.000 C 
ATOM      7  O   UNL     1       5.188  -4.031  40.184  0.00  0.00    +0.000 OA
ATOM      8  C   UNL     1       5.178  -3.710  42.528  0.00  0.00    +0.000 C 
ATOM      9  O   UNL     1       6.123  -2.674  42.822  0.00  0.00    +0.000 OA
ATOM     10  C   UNL     1       3.983  -3.036  41.920  0.00  0.00    +0.000 C 
ATOM     11  O   UNL     1       3.718  -1.780  42.552  0.00  0.00    +0.000 OA
ATOM     12  C   UNL     1       4.479  -2.835  40.497  0.00  0.00    +0.000 C 
ATOM     13  N   UNL     1       3.357  -2.640  39.564  0.00  0.00    +0.000 N 
ATOM     14  C   UNL     1       2.526  -3.596  39.146  0.00  0.00    +0.000 A 
ATOM     15  N   UNL     1       1.627  -3.035  38.313  0.00  0.00    +0.000 NA
ATOM     16  C   UNL     1       1.895  -1.716  38.219  0.00  0.00    +0.000 A 
ATOM     17  C   UNL     1       1.324  -0.661  37.501  0.00  0.00    +0.000 A 
ATOM     18  N   UNL     1       0.248  -0.882  36.708  0.00  0.00    +0.000 N 
ATOM     19  N   UNL     1       1.850   0.579  37.607  0.00  0.00    +0.000 NA
ATOM     20  C   UNL     1       2.916   0.776  38.400  0.00  0.00    +0.000 A 
ATOM     21  N   UNL     1       3.491  -0.223  39.095  0.00  0.00    +0.000 NA
ATOM     22  C   UNL     1       2.994  -1.477  39.019  0.00  0.00    +0.000 A 
ATOM     23  N   UNL     1      11.564 -11.840  37.390  0.00  0.00    +0.000 N 
ATOM     24  C   UNL     1      12.545 -11.709  36.471  0.00  0.00    +0.000 A 
ATOM     25  O   UNL     1      13.051 -10.481  36.245  0.00  0.00    +0.000 OA
ATOM     26  N   UNL     1      13.030 -12.778  35.779  0.00  0.00    +0.000 N 
ATOM     27  C   UNL     1      12.535 -14.025  35.979  0.00  0.00    +0.000 A 
ATOM     28  O   UNL     1      13.001 -15.097  35.304  0.00  0.00    +0.000 OA
ATOM     29  C   UNL     1      11.475 -14.210  36.980  0.00  0.00    +0.000 A 
ATOM     30  N   UNL     1      10.970 -15.443  37.198  0.00  0.00    +0.000 NA
ATOM     31  C   UNL     1       9.974 -15.612  38.106  0.00  0.00    +0.000 C 
ATOM     32  C   UNL     1       9.434 -16.868  38.347  0.00  0.00    +0.000 C 
ATOM     33  C   UNL     1       8.422 -17.015  39.291  0.00  0.00    +0.000 C 
ATOM     34  C   UNL     1       7.824 -18.358  39.581  0.00  0.00    +0.000 C 
ATOM     35  C   UNL     1       7.898 -15.850  40.030  0.00  0.00    +0.000 C 
ATOM     36  C   UNL     1       6.795 -16.049  41.033  0.00  0.00    +0.000 C 
ATOM     37  C   UNL     1       8.425 -14.587  39.788  0.00  0.00    +0.000 C 
ATOM     38  C   UNL     1       9.446 -14.441  38.855  0.00  0.00    +0.000 C 
ATOM     39  N   UNL     1       9.990 -13.177  38.595  0.00  0.00    +0.000 N 
ATOM     40  C   UNL     1      11.023 -13.066  37.651  0.00  0.00    +0.000 A 
ATOM     41  C   UNL     1       9.513 -11.984  39.300  0.00  0.00    +0.000 C 
ATOM     42  C   UNL     1       8.425 -11.250  38.526  0.00  0.00    +0.000 C 
ATOM     43  O   UNL     1       8.748 -11.174  37.138  0.00  0.00    +0.000 OA
ATOM     44  C   UNL     1       8.337  -9.828  39.033  0.00  0.00    +0.000 C 
ATOM     45  O   UNL     1       8.235  -9.831  40.469  0.00  0.00    +0.000 OA
ATOM     46  C   UNL     1       7.175  -9.095  38.375  0.00  0.00    +0.000 C 
ATOM     47  O   UNL     1       7.262  -7.721  38.783  0.00  0.00    +0.000 OA
ATOM     48  C   UNL     1       5.824  -9.737  38.739  0.00  0.00    +0.000 C 
ATOM     49  O   UNL     1       4.743  -9.087  38.067  0.00  0.00    +0.000 OA
ATOM     50  P   UNL     1       3.332  -8.821  38.776  0.00  0.00    +0.000 P 
ATOM     51  O   UNL     1       2.336  -8.228  37.816  0.00  0.00    +0.000 OA
ATOM     52  O   UNL     1       2.960 -10.094  39.494  0.00  0.00    +0.000 OA
ATOM     53  O   UNL     1       3.682  -7.627  39.797  0.00  0.00    +0.000 OA
ATOM     54  H   UNL     1       6.306  -2.165  42.017  0.00  0.00    +0.000 HD
ATOM     55  H   UNL     1       4.512  -1.224  42.511  0.00  0.00    +0.000 HD
ATOM     56  H   UNL     1      -0.153  -0.138  36.203  0.00  0.00    +0.000 HD
ATOM     57  H   UNL     1      -0.133  -1.787  36.637  0.00  0.00    +0.000 HD
ATOM     58  H   UNL     1      11.237 -11.047  37.874  0.00  0.00    +0.000 HD
ATOM     59  H   UNL     1      13.752 -12.643  35.123  0.00  0.00    +0.000 HD
ATOM     60  H   UNL     1       9.581 -10.690  37.026  0.00  0.00    +0.000 HD
ATOM     61  H   UNL     1       7.433 -10.307  40.735  0.00  0.00    +0.000 HD
ATOM     62  H   UNL     1       7.207  -7.667  39.750  0.00  0.00    +0.000 HD
TER 
