REMARK SMILES CC1=CC(N2CC[C@H](NC[C@H]3c4nccn4C[C@@H]3C(C)(C)c3cc(N)c(CO)c(CC(F)F)c3)C2)=NC1
REMARK SMILES IDX 11 1 18 2 17 3 16 4 12 5 13 6 14 7 15 8 10 9 9 10 8 12 5 13
REMARK SMILES IDX 6 14 35 15 7 16 4 17 2 18 3 19 37 20 36 21 1 22 19 23 20 24
REMARK SMILES IDX 21 25 22 26 34 27 23 28 29 29 24 30 26 31 30 32 31 33 32 34
REMARK SMILES IDX 33 35 25 36 27 39 28 40
REMARK H PARENT 9 11 25 37 25 38 28 41
ROOT
ATOM      1  C   UNL     1       0.282  -0.273  -0.649  1.00  0.00     0.075 C 
ATOM      2  C   UNL     1      -1.290  -0.246  -0.485  1.00  0.00     0.031 C 
ATOM      3  C   UNL     1      -1.764  -1.735  -0.528  1.00  0.00     0.128 C 
ATOM      4  N   UNL     1      -0.531  -2.477  -0.415  1.00  0.00    -0.334 N 
ATOM      5  C   UNL     1       0.588  -1.717  -0.484  1.00  0.00     0.113 A 
ATOM      6  N   UNL     1       1.673  -2.439  -0.369  1.00  0.00    -0.241 NA
ATOM      7  C   UNL     1       1.197  -3.731  -0.230  1.00  0.00     0.131 A 
ATOM      8  C   UNL     1      -0.188  -3.766  -0.247  1.00  0.00     0.107 A 
ENDROOT
BRANCH   1   9
ATOM      9  C   UNL     1       1.003   0.571   0.422  1.00  0.00     0.093 C 
BRANCH   9  10
ATOM     10  N   UNL     1       2.426   0.693   0.088  1.00  0.00    -0.311 NA
ATOM     11  H   UNL     1       2.797  -0.241  -0.134  1.00  0.00     0.123 HD
BRANCH  10  12
ATOM     12  C   UNL     1       3.236   1.301   1.156  1.00  0.00     0.074 C 
ATOM     13  N   UNL     1       5.404   0.330   0.964  1.00  0.00    -0.355 N 
ATOM     14  C   UNL     1       4.644  -0.522   1.863  1.00  0.00     0.120 C 
ATOM     15  C   UNL     1       4.681   1.555   0.653  1.00  0.00     0.137 C 
ATOM     16  C   UNL     1       3.504   0.371   2.343  1.00  0.00     0.042 C 
BRANCH  13  17
ATOM     17  C   UNL     1       6.651  -0.011   0.505  1.00  0.00     0.123 C 
ATOM     18  C   UNL     1       8.580   0.160  -0.566  1.00  0.00    -0.048 C 
ATOM     19  C   UNL     1       7.453   0.848  -0.389  1.00  0.00     0.047 C 
ATOM     20  C   UNL     1       8.543  -1.127   0.178  1.00  0.00     0.175 C 
ATOM     21  N   UNL     1       7.234  -1.132   0.850  1.00  0.00    -0.264 NA
ATOM     22  C   UNL     1       9.760   0.549  -1.379  1.00  0.00     0.041 C 
ENDBRANCH  13  17
ENDBRANCH  10  12
ENDBRANCH   9  10
ENDBRANCH   1   9
BRANCH   2  23
ATOM     23  C   UNL     1      -2.080   0.690  -1.484  1.00  0.00    -0.005 C 
ATOM     24  C   UNL     1      -1.627   2.158  -1.297  1.00  0.00     0.016 C 
ATOM     25  C   UNL     1      -1.766   0.310  -2.957  1.00  0.00     0.016 C 
BRANCH  23  26
ATOM     26  C   UNL     1      -3.597   0.640  -1.177  1.00  0.00    -0.040 A 
ATOM     27  C   UNL     1      -4.069   0.778   0.138  1.00  0.00     0.008 A 
ATOM     28  C   UNL     1      -4.568   0.494  -2.176  1.00  0.00     0.030 A 
ATOM     29  C   UNL     1      -5.441   0.716   0.465  1.00  0.00    -0.034 A 
ATOM     30  C   UNL     1      -5.940   0.391  -1.885  1.00  0.00     0.038 A 
ATOM     31  C   UNL     1      -6.399   0.509  -0.556  1.00  0.00     0.004 A 
BRANCH  29  32
ATOM     32  C   UNL     1      -5.805   0.869   1.934  1.00  0.00     0.109 C 
BRANCH  32  33
ATOM     33  C   UNL     1      -5.728  -0.440   2.710  1.00  0.00     0.346 C 
ATOM     34  F   UNL     1      -4.489  -0.986   2.615  1.00  0.00    -0.210 F 
ATOM     35  F   UNL     1      -6.606  -1.346   2.216  1.00  0.00    -0.210 F 
ENDBRANCH  32  33
ENDBRANCH  29  32
BRANCH  30  36
ATOM     36  N   UNL     1      -6.844   0.385  -2.972  1.00  0.00    -0.398 N 
ATOM     37  H   UNL     1      -7.723  -0.051  -2.672  1.00  0.00     0.156 HD
ATOM     38  H   UNL     1      -6.474  -0.075  -3.797  1.00  0.00     0.156 HD
ENDBRANCH  30  36
BRANCH  31  39
ATOM     39  C   UNL     1      -7.884   0.493  -0.237  1.00  0.00     0.194 C 
BRANCH  39  40
ATOM     40  O   UNL     1      -8.644  -0.320  -1.135  1.00  0.00    -0.392 OA
ATOM     41  H   UNL     1      -9.569  -0.257  -0.826  1.00  0.00     0.211 HD
ENDBRANCH  39  40
ENDBRANCH  31  39
ENDBRANCH  23  26
ENDBRANCH   2  23
TORSDOF 11
