REMARK SMILES Cc1nc2c(c(C[C@@](C)(C(=O)NCC(F)F)c3cc(N)c(C)c(CC[C@H]4Cc5ccccc5O4)c3)n1)CNC2
REMARK SMILES IDX 8 1 9 2 7 3 6 4 2 5 3 6 36 7 4 8 5 9 39 10 37 11 38 12 1 13
REMARK SMILES IDX 10 15 12 16 11 17 13 19 14 20 15 21 16 22 17 23 35 24 18 25
REMARK SMILES IDX 23 26 19 27 21 28 22 29 24 30 25 31 26 32 27 33 34 34 28 35
REMARK SMILES IDX 33 36 29 37 32 38 30 39 31 40 20 41
REMARK H PARENT 38 14 12 18 20 42 20 43
ROOT
ATOM      1  C   UNL     1      -1.722  -0.336  -1.382  1.00  0.00     0.077 C 
ATOM      2  C   UNL     1      -2.848  -1.171  -2.035  1.00  0.00     0.027 C 
ENDROOT
BRANCH   1   3
ATOM      3  C   UNL     1      -2.345   0.921  -0.679  1.00  0.00     0.078 C 
BRANCH   3   4
ATOM      4  C   UNL     1      -3.207   0.656   0.531  1.00  0.00     0.050 A 
ATOM      5  C   UNL     1      -3.308   0.178   2.806  1.00  0.00     0.125 A 
ATOM      6  N   UNL     1      -4.653   0.163   2.847  1.00  0.00    -0.237 NA
ATOM      7  N   UNL     1      -2.569   0.441   1.702  1.00  0.00    -0.238 NA
ATOM      8  C   UNL     1      -5.238   0.413   1.671  1.00  0.00     0.063 A 
ATOM      9  C   UNL     1      -4.575   0.655   0.490  1.00  0.00     0.010 A 
ATOM     10  C   UNL     1      -6.719   0.509   1.432  1.00  0.00     0.138 C 
ATOM     11  C   UNL     1      -5.556   0.918  -0.591  1.00  0.00     0.121 C 
ATOM     12  N   UNL     1      -6.885   0.534  -0.051  1.00  0.00    -0.307 NA
ATOM     13  C   UNL     1      -2.566  -0.069   4.083  1.00  0.00     0.089 C 
ATOM     14  H   UNL     1      -7.060  -0.430  -0.333  1.00  0.00     0.123 HD
ENDBRANCH   3   4
ENDBRANCH   1   3
BRANCH   1  15
ATOM     15  C   UNL     1      -0.821   0.151  -2.567  1.00  0.00     0.230 C 
ATOM     16  N   UNL     1      -1.400   1.040  -3.451  1.00  0.00    -0.350 N 
ATOM     17  O   UNL     1       0.332  -0.240  -2.754  1.00  0.00    -0.274 OA
ATOM     18  H   UNL     1      -2.361   1.337  -3.345  1.00  0.00     0.163 HD
BRANCH  16  19
ATOM     19  C   UNL     1      -0.654   1.633  -4.563  1.00  0.00     0.189 C 
BRANCH  19  20
ATOM     20  C   UNL     1      -1.259   1.309  -5.925  1.00  0.00     0.361 C 
ATOM     21  F   UNL     1      -2.543   1.762  -5.961  1.00  0.00    -0.208 F 
ATOM     22  F   UNL     1      -0.590   1.977  -6.899  1.00  0.00    -0.208 F 
ENDBRANCH  19  20
ENDBRANCH  16  19
ENDBRANCH   1  15
BRANCH   1  23
ATOM     23  C   UNL     1      -0.870  -1.151  -0.377  1.00  0.00    -0.030 A 
ATOM     24  C   UNL     1       0.211  -0.537   0.278  1.00  0.00     0.009 A 
ATOM     25  C   UNL     1      -1.128  -2.491  -0.056  1.00  0.00     0.030 A 
ATOM     26  C   UNL     1       1.011  -1.215   1.218  1.00  0.00    -0.043 A 
ATOM     27  C   UNL     1      -0.387  -3.182   0.919  1.00  0.00     0.035 A 
ATOM     28  C   UNL     1       0.733  -2.567   1.516  1.00  0.00    -0.025 A 
ATOM     29  C   UNL     1       1.585  -3.358   2.476  1.00  0.00     0.047 C 
BRANCH  26  30
ATOM     30  C   UNL     1       2.164  -0.447   1.831  1.00  0.00     0.039 C 
BRANCH  30  31
ATOM     31  C   UNL     1       3.461  -0.657   1.044  1.00  0.00     0.050 C 
BRANCH  31  32
ATOM     32  C   UNL     1       4.662   0.005   1.734  1.00  0.00     0.178 C 
ATOM     33  C   UNL     1       5.979  -0.256   0.980  1.00  0.00     0.084 C 
ATOM     34  O   UNL     1       4.439   1.438   1.831  1.00  0.00    -0.490 OA
ATOM     35  C   UNL     1       6.225   1.086   0.410  1.00  0.00    -0.002 A 
ATOM     36  C   UNL     1       5.332   1.992   0.954  1.00  0.00     0.123 A 
ATOM     37  C   UNL     1       7.196   1.494  -0.488  1.00  0.00     0.007 A 
ATOM     38  C   UNL     1       5.367   3.333   0.630  1.00  0.00     0.047 A 
ATOM     39  C   UNL     1       7.244   2.845  -0.839  1.00  0.00     0.001 A 
ATOM     40  C   UNL     1       6.336   3.761  -0.281  1.00  0.00     0.004 A 
ENDBRANCH  31  32
ENDBRANCH  30  31
ENDBRANCH  26  30
BRANCH  27  41
ATOM     41  N   UNL     1      -0.662  -4.551   1.114  1.00  0.00    -0.398 N 
ATOM     42  H   UNL     1      -0.407  -4.885   2.039  1.00  0.00     0.156 HD
ATOM     43  H   UNL     1      -1.615  -4.804   0.874  1.00  0.00     0.156 HD
ENDBRANCH  27  41
ENDBRANCH   1  23
TORSDOF 10
