REMARK SMILES CN1[C@H](CNC(=O)C(C)(C)c2cc(N)c(NCC(F)F)c(-c3cnc4occc4c3)c2)C[C@@H]2OCCC[C@H]21
REMARK SMILES IDX 11 1 31 2 21 3 15 4 13 5 12 6 8 7 9 8 10 9 6 10 5 11 7 12
REMARK SMILES IDX 4 14 3 15 2 16 38 17 32 18 37 19 33 20 36 21 34 22 35 23
REMARK SMILES IDX 1 24 22 25 23 26 30 27 24 28 29 29 25 30 28 31 26 32 27 33
REMARK SMILES IDX 14 34 16 37 17 39 18 40 19 41 20 42
REMARK H PARENT 5 13 14 35 14 36 16 38
ROOT
ATOM      1  C   UNL     1       1.187  -1.847  -0.157  1.00  0.00    -0.030 A 
ATOM      2  C   UNL     1       2.059  -0.904  -0.738  1.00  0.00     0.016 A 
ATOM      3  C   UNL     1       3.197  -0.409  -0.070  1.00  0.00     0.009 A 
ATOM      4  C   UNL     1       3.466  -0.887   1.233  1.00  0.00     0.066 A 
ATOM      5  C   UNL     1       2.666  -1.916   1.789  1.00  0.00     0.056 A 
ATOM      6  C   UNL     1       1.509  -2.332   1.119  1.00  0.00     0.032 A 
ENDROOT
BRANCH   1   7
ATOM      7  C   UNL     1      -0.057  -2.311  -0.940  1.00  0.00     0.068 C 
ATOM      8  C   UNL     1       0.420  -3.178  -2.126  1.00  0.00     0.026 C 
ATOM      9  C   UNL     1      -1.042  -3.167  -0.116  1.00  0.00     0.026 C 
BRANCH   7  10
ATOM     10  C   UNL     1      -0.857  -1.095  -1.479  1.00  0.00     0.230 C 
ATOM     11  N   UNL     1      -1.249  -0.182  -0.523  1.00  0.00    -0.354 N 
ATOM     12  O   UNL     1      -1.139  -0.954  -2.668  1.00  0.00    -0.274 OA
ATOM     13  H   UNL     1      -1.137  -0.403   0.459  1.00  0.00     0.163 HD
BRANCH  11  14
ATOM     14  C   UNL     1      -2.060   0.976  -0.849  1.00  0.00     0.135 C 
BRANCH  14  15
ATOM     15  C   UNL     1      -3.562   0.643  -0.935  1.00  0.00     0.078 C 
ATOM     16  N   UNL     1      -4.085   0.142   0.383  1.00  0.00    -0.296 NA
ATOM     17  C   UNL     1      -5.112   1.117   0.792  1.00  0.00     0.085 C 
ATOM     18  C   UNL     1      -4.382   1.888  -1.304  1.00  0.00     0.054 C 
ATOM     19  C   UNL     1      -6.274   0.729   1.711  1.00  0.00     0.024 C 
ATOM     20  C   UNL     1      -5.654   1.718  -0.500  1.00  0.00     0.137 C 
ATOM     21  C   UNL     1      -7.459   1.689   1.516  1.00  0.00     0.030 C 
ATOM     22  O   UNL     1      -6.335   2.951  -0.304  1.00  0.00    -0.377 OA
ATOM     23  C   UNL     1      -7.028   3.042   0.949  1.00  0.00     0.160 C 
ATOM     24  C   UNL     1      -4.583  -1.226   0.244  1.00  0.00     0.106 C 
ENDBRANCH  14  15
ENDBRANCH  11  14
ENDBRANCH   7  10
ENDBRANCH   1   7
BRANCH   3  25
ATOM     25  C   UNL     1       4.033   0.607  -0.736  1.00  0.00     0.003 A 
ATOM     26  C   UNL     1       4.620   0.360  -1.985  1.00  0.00     0.124 A 
ATOM     27  C   UNL     1       4.269   1.863  -0.155  1.00  0.00     0.024 A 
ATOM     28  N   UNL     1       5.406   1.204  -2.699  1.00  0.00    -0.221 NA
ATOM     29  C   UNL     1       5.073   2.781  -0.850  1.00  0.00     0.041 A 
ATOM     30  C   UNL     1       5.588   2.386  -2.083  1.00  0.00     0.225 A 
ATOM     31  C   UNL     1       5.543   4.101  -0.629  1.00  0.00     0.052 A 
ATOM     32  O   UNL     1       6.339   3.394  -2.612  1.00  0.00    -0.446 OA
ATOM     33  C   UNL     1       6.303   4.426  -1.730  1.00  0.00     0.198 A 
ENDBRANCH   3  25
BRANCH   5  34
ATOM     34  N   UNL     1       2.916  -2.393   3.096  1.00  0.00    -0.397 N 
ATOM     35  H   UNL     1       3.910  -2.443   3.320  1.00  0.00     0.156 HD
ATOM     36  H   UNL     1       2.456  -3.275   3.302  1.00  0.00     0.156 HD
ENDBRANCH   5  34
BRANCH   4  37
ATOM     37  N   UNL     1       4.594  -0.424   1.972  1.00  0.00    -0.377 N 
ATOM     38  H   UNL     1       4.389  -0.564   2.966  1.00  0.00     0.160 HD
BRANCH  37  39
ATOM     39  C   UNL     1       5.849  -1.101   1.573  1.00  0.00     0.186 C 
BRANCH  39  40
ATOM     40  C   UNL     1       6.624  -1.640   2.781  1.00  0.00     0.361 C 
ATOM     41  F   UNL     1       5.828  -2.497   3.485  1.00  0.00    -0.209 F 
ATOM     42  F   UNL     1       6.948  -0.633   3.632  1.00  0.00    -0.209 F 
ENDBRANCH  39  40
ENDBRANCH  37  39
ENDBRANCH   4  37
TORSDOF 9
