REMARK SMILES CCOC(=O)NC(=O)c1ccsc1NC(=O)c1nc2ccccc2s1
REMARK SMILES IDX 5 1 4 2 6 3 7 4 8 5 3 7 2 8 1 9 9 10 13 11 10 12 12 13 11 14
REMARK SMILES IDX 14 15 15 16 16 17 17 19 18 20 25 21 19 22 24 23 20 24 23 25
REMARK SMILES IDX 21 26 22 27
REMARK H PARENT 6 6 14 18
ROOT
ATOM      1  O   UNL     1       2.917   1.932   1.021  1.00  0.00    -0.224 OA
ATOM      2  C   UNL     1       3.557   1.209   0.277  1.00  0.00     0.414 C 
ATOM      3  N   UNL     1       3.095   0.195  -0.510  1.00  0.00    -0.257 N 
ATOM      4  C   UNL     1       1.781  -0.201  -0.604  1.00  0.00     0.263 C 
ATOM      5  O   UNL     1       0.852   0.312   0.013  1.00  0.00    -0.269 OA
ATOM      6  H   UNL     1       3.812  -0.264  -1.041  1.00  0.00     0.176 HD
ENDROOT
BRANCH   2   7
ATOM      7  O   UNL     1       4.903   1.295   0.097  1.00  0.00    -0.450 OA
BRANCH   7   8
ATOM      8  C   UNL     1       5.535   2.327   0.868  1.00  0.00     0.231 C 
ATOM      9  C   UNL     1       7.020   2.300   0.565  1.00  0.00     0.049 C 
ENDBRANCH   7   8
ENDBRANCH   2   7
BRANCH   4  10
ATOM     10  C   UNL     1       1.532  -1.324  -1.526  1.00  0.00     0.075 A 
ATOM     11  C   UNL     1       0.252  -1.838  -1.727  1.00  0.00     0.108 A 
ATOM     12  C   UNL     1       2.489  -2.046  -2.329  1.00  0.00     0.028 A 
ATOM     13  S   UNL     1       0.229  -3.125  -2.833  1.00  0.00    -0.126 S 
ATOM     14  C   UNL     1       1.909  -3.044  -3.080  1.00  0.00     0.068 A 
BRANCH  11  15
ATOM     15  N   UNL     1      -0.908  -1.382  -1.115  1.00  0.00    -0.311 N 
ATOM     16  C   UNL     1      -2.211  -1.846  -1.269  1.00  0.00     0.285 C 
ATOM     17  O   UNL     1      -2.530  -2.774  -2.009  1.00  0.00    -0.266 OA
ATOM     18  H   UNL     1      -0.769  -0.603  -0.469  1.00  0.00     0.171 HD
BRANCH  16  19
ATOM     19  C   UNL     1      -3.213  -1.126  -0.459  1.00  0.00     0.182 A 
ATOM     20  N   UNL     1      -4.495  -1.434  -0.483  1.00  0.00    -0.231 NA
ATOM     21  S   UNL     1      -2.795   0.175   0.584  1.00  0.00    -0.109 S 
ATOM     22  C   UNL     1      -5.204  -0.604   0.367  1.00  0.00     0.082 A 
ATOM     23  C   UNL     1      -4.442   0.348   1.044  1.00  0.00     0.055 A 
ATOM     24  C   UNL     1      -6.595  -0.646   0.593  1.00  0.00     0.030 A 
ATOM     25  C   UNL     1      -5.021   1.261   1.941  1.00  0.00     0.021 A 
ATOM     26  C   UNL     1      -7.183   0.258   1.484  1.00  0.00     0.002 A 
ATOM     27  C   UNL     1      -6.403   1.199   2.148  1.00  0.00     0.002 A 
ENDBRANCH  16  19
ENDBRANCH  11  15
ENDBRANCH   4  10
TORSDOF 5
