REMARK SMILES Cc1c(C(=O)NCC(F)F)ncc2[nH]cc(CCO[C@@H]3CCN(C4=Cc5c(N)cc6c(c5CC4)OCC6)C3)c12
REMARK SMILES IDX 17 1 16 2 2 3 3 4 39 5 11 6 13 7 12 8 14 9 15 10 1 11 4 13
REMARK SMILES IDX 6 14 5 15 7 17 8 18 9 19 10 20 18 21 19 22 20 23 21 24 38 25
REMARK SMILES IDX 22 26 23 27 24 28 25 29 34 30 26 31 33 32 32 33 27 34 31 35
REMARK SMILES IDX 29 36 30 37 35 38 37 39 36 40 28 41
REMARK H PARENT 14 12 6 16 28 42 28 43
ROOT
ATOM      1  C   UNL     1      -1.978  -0.027   0.199  1.00  0.00     0.066 C 
ENDROOT
BRANCH   1   2
ATOM      2  C   UNL     1      -3.096   0.475   1.064  1.00  0.00    -0.020 A 
ATOM      3  C   UNL     1      -5.352  -0.511   0.065  1.00  0.00    -0.010 A 
ATOM      4  C   UNL     1      -6.686  -0.658   0.488  1.00  0.00     0.131 A 
ATOM      5  C   UNL     1      -4.508   0.179   0.978  1.00  0.00     0.010 A 
ATOM      6  N   UNL     1      -7.196  -0.219   1.676  1.00  0.00    -0.249 NA
ATOM      7  C   UNL     1      -5.081   0.700   2.145  1.00  0.00     0.065 A 
ATOM      8  C   UNL     1      -6.402   0.487   2.499  1.00  0.00     0.138 A 
ATOM      9  N   UNL     1      -4.106   1.392   2.825  1.00  0.00    -0.360 N 
ATOM     10  C   UNL     1      -2.910   1.262   2.186  1.00  0.00     0.087 A 
ATOM     11  C   UNL     1      -4.921  -1.039  -1.272  1.00  0.00     0.047 C 
ATOM     12  H   UNL     1      -4.247   1.872   3.701  1.00  0.00     0.166 HD
BRANCH   4  13
ATOM     13  C   UNL     1      -7.722  -1.362  -0.358  1.00  0.00     0.270 C 
ATOM     14  N   UNL     1      -8.760  -1.917   0.365  1.00  0.00    -0.345 N 
ATOM     15  O   UNL     1      -7.671  -1.416  -1.581  1.00  0.00    -0.268 OA
ATOM     16  H   UNL     1      -8.831  -1.610   1.332  1.00  0.00     0.164 HD
BRANCH  14  17
ATOM     17  C   UNL     1      -9.929  -2.471  -0.295  1.00  0.00     0.189 C 
BRANCH  17  18
ATOM     18  C   UNL     1     -10.957  -1.417  -0.689  1.00  0.00     0.361 C 
ATOM     19  F   UNL     1     -11.524  -0.903   0.440  1.00  0.00    -0.208 F 
ATOM     20  F   UNL     1     -11.966  -2.000  -1.389  1.00  0.00    -0.208 F 
ENDBRANCH  17  18
ENDBRANCH  14  17
ENDBRANCH   4  13
ENDBRANCH   1   2
BRANCH   1  21
ATOM     21  C   UNL     1      -1.712   0.804  -1.062  1.00  0.00     0.165 C 
BRANCH  21  22
ATOM     22  O   UNL     1      -1.016   2.036  -0.861  1.00  0.00    -0.376 OA
BRANCH  22  23
ATOM     23  C   UNL     1       0.247   1.947  -0.215  1.00  0.00     0.139 C 
ATOM     24  C   UNL     1       0.999   3.258  -0.390  1.00  0.00     0.055 C 
ATOM     25  C   UNL     1       1.258   0.941  -0.790  1.00  0.00     0.148 C 
ATOM     26  C   UNL     1       2.425   2.887  -0.010  1.00  0.00     0.119 C 
ATOM     27  N   UNL     1       2.570   1.474  -0.399  1.00  0.00    -0.372 N 
BRANCH  27  28
ATOM     28  C   UNL     1       3.783   0.777  -0.435  1.00  0.00     0.014 C 
ATOM     29  C   UNL     1       4.956   1.317  -0.042  1.00  0.00     0.032 C 
ATOM     30  C   UNL     1       3.796  -0.654  -0.954  1.00  0.00     0.058 C 
ATOM     31  C   UNL     1       6.245   0.600  -0.120  1.00  0.00     0.006 A 
ATOM     32  C   UNL     1       4.894  -1.520  -0.322  1.00  0.00     0.046 C 
ATOM     33  C   UNL     1       6.211  -0.805  -0.245  1.00  0.00     0.004 A 
ATOM     34  C   UNL     1       7.495   1.276  -0.048  1.00  0.00     0.040 A 
ATOM     35  C   UNL     1       7.412  -1.493  -0.220  1.00  0.00     0.126 A 
ATOM     36  C   UNL     1       8.684   0.533   0.036  1.00  0.00     0.033 A 
ATOM     37  C   UNL     1       8.625  -0.843  -0.076  1.00  0.00    -0.000 A 
ATOM     38  O   UNL     1       7.537  -2.860  -0.290  1.00  0.00    -0.493 OA
ATOM     39  C   UNL     1       9.714  -1.840   0.010  1.00  0.00     0.081 C 
ATOM     40  C   UNL     1       8.954  -3.062  -0.503  1.00  0.00     0.234 C 
BRANCH  34  41
ATOM     41  N   UNL     1       7.598   2.674   0.152  1.00  0.00    -0.398 N 
ATOM     42  H   UNL     1       7.645   2.877   1.149  1.00  0.00     0.156 HD
ATOM     43  H   UNL     1       6.813   3.169  -0.267  1.00  0.00     0.156 HD
ENDBRANCH  34  41
ENDBRANCH  27  28
ENDBRANCH  22  23
ENDBRANCH  21  22
ENDBRANCH   1  21
TORSDOF 9
