REMARK SMILES CC(=O)NCCc1cc(N)c(C)c(-c2c(CCC(=O)NCC(F)F)ncc3c2[C@H]2CCCC[C@H]2O3)c1
REMARK SMILES IDX 15 1 14 2 28 3 27 4 35 5 34 6 29 7 30 8 31 9 32 10 33 11
REMARK SMILES IDX 26 12 25 13 16 14 17 15 18 16 19 17 20 18 21 20 22 21 23 22
REMARK SMILES IDX 24 23 13 24 36 25 11 26 7 27 9 28 8 29 12 30 6 31 5 32 4 33
REMARK SMILES IDX 2 34 3 35 1 37 10 38
REMARK H PARENT 20 19 4 36 10 39 10 40
ROOT
ATOM      1  C   UNL     1      -1.469  -0.290   1.464  1.00  0.00     0.049 A 
ATOM      2  C   UNL     1      -0.777   0.642   0.654  1.00  0.00     0.011 A 
ATOM      3  C   UNL     1      -1.117   1.988   0.839  1.00  0.00     0.012 A 
ATOM      4  C   UNL     1      -2.107   2.341   1.737  1.00  0.00     0.142 A 
ATOM      5  O   UNL     1      -2.339   3.681   1.849  1.00  0.00    -0.488 OA
ATOM      6  C   UNL     1      -1.250   4.295   1.121  1.00  0.00     0.181 C 
ATOM      7  C   UNL     1      -0.552   3.232   0.235  1.00  0.00     0.065 C 
ATOM      8  C   UNL     1      -0.851   3.438  -1.250  1.00  0.00     0.012 C 
ATOM      9  C   UNL     1      -0.494   4.849  -1.724  1.00  0.00     0.001 C 
ATOM     10  C   UNL     1      -0.808   5.949  -0.709  1.00  0.00     0.004 C 
ATOM     11  C   UNL     1      -1.807   5.485   0.339  1.00  0.00     0.046 C 
ATOM     12  C   UNL     1      -2.775   1.376   2.442  1.00  0.00     0.158 A 
ATOM     13  N   UNL     1      -2.464   0.069   2.328  1.00  0.00    -0.257 NA
ENDROOT
BRANCH   1  14
ATOM     14  C   UNL     1      -1.129  -1.768   1.495  1.00  0.00     0.067 C 
BRANCH  14  15
ATOM     15  C   UNL     1      -1.810  -2.593   0.411  1.00  0.00     0.106 C 
BRANCH  15  16
ATOM     16  C   UNL     1      -3.292  -2.813   0.652  1.00  0.00     0.220 C 
ATOM     17  O   UNL     1      -3.803  -2.904   1.762  1.00  0.00    -0.275 OA
ATOM     18  N   UNL     1      -4.006  -2.981  -0.521  1.00  0.00    -0.350 N 
ATOM     19  H   UNL     1      -3.486  -3.186  -1.365  1.00  0.00     0.163 HD
BRANCH  18  20
ATOM     20  C   UNL     1      -5.403  -3.402  -0.483  1.00  0.00     0.189 C 
BRANCH  20  21
ATOM     21  C   UNL     1      -5.580  -4.920  -0.501  1.00  0.00     0.361 C 
ATOM     22  F   UNL     1      -4.914  -5.513   0.519  1.00  0.00    -0.208 F 
ATOM     23  F   UNL     1      -5.048  -5.418  -1.652  1.00  0.00    -0.208 F 
ENDBRANCH  20  21
ENDBRANCH  18  20
ENDBRANCH  15  16
ENDBRANCH  14  15
ENDBRANCH   1  14
BRANCH   2  24
ATOM     24  C   UNL     1       0.266   0.245  -0.307  1.00  0.00    -0.011 A 
ATOM     25  C   UNL     1       1.598   0.171   0.145  1.00  0.00     0.013 A 
ATOM     26  C   UNL     1      -0.018  -0.048  -1.669  1.00  0.00    -0.020 A 
ATOM     27  C   UNL     1       2.643  -0.167  -0.718  1.00  0.00    -0.044 A 
ATOM     28  C   UNL     1       1.028  -0.449  -2.530  1.00  0.00     0.035 A 
ATOM     29  C   UNL     1       2.345  -0.451  -2.055  1.00  0.00     0.029 A 
ATOM     30  C   UNL     1      -1.420   0.070  -2.226  1.00  0.00     0.047 C 
BRANCH  27  31
ATOM     31  C   UNL     1       4.068  -0.246  -0.232  1.00  0.00     0.057 C 
BRANCH  31  32
ATOM     32  C   UNL     1       4.510  -1.693  -0.007  1.00  0.00     0.120 C 
BRANCH  32  33
ATOM     33  N   UNL     1       5.914  -1.783   0.349  1.00  0.00    -0.356 N 
ATOM     34  C   UNL     1       6.631  -2.934   0.104  1.00  0.00     0.216 C 
ATOM     35  O   UNL     1       6.186  -3.901  -0.506  1.00  0.00    -0.275 OA
ATOM     36  H   UNL     1       6.267  -1.147   1.054  1.00  0.00     0.163 HD
ATOM     37  C   UNL     1       8.027  -2.922   0.664  1.00  0.00     0.114 C 
ENDBRANCH  32  33
ENDBRANCH  31  32
ENDBRANCH  27  31
BRANCH  28  38
ATOM     38  N   UNL     1       0.819  -0.636  -3.907  1.00  0.00    -0.398 N 
ATOM     39  H   UNL     1      -0.106  -0.969  -4.150  1.00  0.00     0.156 HD
ATOM     40  H   UNL     1       1.547  -1.184  -4.360  1.00  0.00     0.156 HD
ENDBRANCH  28  38
ENDBRANCH   2  24
TORSDOF 10
