REMARK SMILES Cc1c(C(=O)NCC(F)F)cc(C2=C(N3CCC(OCCC[C@H]4Cc5ccccc5O4)CC3)COC2=O)nc1N
REMARK SMILES IDX 13 1 14 2 34 3 35 4 36 5 37 6 12 7 2 8 3 9 39 10 11 11 38 12
REMARK SMILES IDX 1 13 4 14 6 15 5 16 7 18 8 19 9 20 10 21 40 22 15 25 16 26
REMARK SMILES IDX 33 27 17 28 32 29 18 30 19 31 20 32 21 33 22 34 23 35 24 36
REMARK SMILES IDX 31 37 25 38 30 39 26 40 29 41 27 42 28 43
REMARK H PARENT 6 17 40 23 40 24
ROOT
ATOM      1  C   UNL     1      -2.335  -1.438  -2.207  1.00  0.00     0.108 C 
ATOM      2  C   UNL     1      -1.248  -1.971  -1.623  1.00  0.00     0.069 C 
ATOM      3  C   UNL     1      -0.632  -2.936  -2.593  1.00  0.00     0.287 C 
ATOM      4  O   UNL     1      -1.439  -2.902  -3.759  1.00  0.00    -0.456 OA
ATOM      5  C   UNL     1      -2.464  -2.041  -3.545  1.00  0.00     0.342 C 
ATOM      6  O   UNL     1      -3.359  -1.826  -4.343  1.00  0.00    -0.246 OA
ENDROOT
BRANCH   1   7
ATOM      7  C   UNL     1      -3.337  -0.507  -1.708  1.00  0.00     0.083 A 
ATOM      8  C   UNL     1      -5.197   1.341  -0.838  1.00  0.00     0.004 A 
ATOM      9  C   UNL     1      -5.524  -0.023  -0.900  1.00  0.00     0.048 A 
ATOM     10  C   UNL     1      -3.885   1.680  -1.169  1.00  0.00     0.127 A 
ATOM     11  C   UNL     1      -4.598  -0.955  -1.366  1.00  0.00     0.043 A 
ATOM     12  N   UNL     1      -2.971   0.790  -1.593  1.00  0.00    -0.231 NA
ATOM     13  C   UNL     1      -6.194   2.395  -0.448  1.00  0.00     0.049 C 
BRANCH   9  14
ATOM     14  C   UNL     1      -6.845  -0.562  -0.503  1.00  0.00     0.251 C 
ATOM     15  N   UNL     1      -7.293  -0.203   0.746  1.00  0.00    -0.346 N 
ATOM     16  O   UNL     1      -7.457  -1.324  -1.240  1.00  0.00    -0.269 OA
ATOM     17  H   UNL     1      -6.725   0.378   1.350  1.00  0.00     0.164 HD
BRANCH  15  18
ATOM     18  C   UNL     1      -8.577  -0.683   1.241  1.00  0.00     0.189 C 
BRANCH  18  19
ATOM     19  C   UNL     1      -9.788  -0.112   0.506  1.00  0.00     0.361 C 
ATOM     20  F   UNL     1     -10.925  -0.624   1.047  1.00  0.00    -0.208 F 
ATOM     21  F   UNL     1      -9.843   1.233   0.713  1.00  0.00    -0.208 F 
ENDBRANCH  18  19
ENDBRANCH  15  18
ENDBRANCH   9  14
BRANCH  10  22
ATOM     22  N   UNL     1      -3.428   2.994  -1.102  1.00  0.00    -0.383 N 
ATOM     23  H   UNL     1      -2.445   2.982  -1.371  1.00  0.00     0.158 HD
ATOM     24  H   UNL     1      -3.561   3.401  -0.184  1.00  0.00     0.158 HD
ENDBRANCH  10  22
ENDBRANCH   1   7
BRANCH   2  25
ATOM     25  N   UNL     1      -0.682  -1.774  -0.348  1.00  0.00    -0.371 N 
ATOM     26  C   UNL     1      -0.967  -0.544   0.437  1.00  0.00     0.119 C 
ATOM     27  C   UNL     1       0.479  -2.550   0.133  1.00  0.00     0.119 C 
ATOM     28  C   UNL     1      -0.210  -0.503   1.762  1.00  0.00     0.053 C 
ATOM     29  C   UNL     1       1.640  -1.611   0.426  1.00  0.00     0.053 C 
ATOM     30  C   UNL     1       1.300  -0.625   1.550  1.00  0.00     0.121 C 
BRANCH  30  31
ATOM     31  O   UNL     1       1.816   0.679   1.250  1.00  0.00    -0.378 OA
BRANCH  31  32
ATOM     32  C   UNL     1       3.240   0.765   1.375  1.00  0.00     0.160 C 
BRANCH  32  33
ATOM     33  C   UNL     1       3.671   2.141   0.879  1.00  0.00     0.032 C 
BRANCH  33  34
ATOM     34  C   UNL     1       5.177   2.404   0.983  1.00  0.00     0.048 C 
BRANCH  34  35
ATOM     35  C   UNL     1       6.003   1.741  -0.134  1.00  0.00     0.178 C 
ATOM     36  C   UNL     1       7.481   2.184  -0.101  1.00  0.00     0.084 C 
ATOM     37  O   UNL     1       5.943   0.298  -0.002  1.00  0.00    -0.490 OA
ATOM     38  C   UNL     1       8.105   0.961   0.450  1.00  0.00    -0.002 A 
ATOM     39  C   UNL     1       7.181  -0.068   0.451  1.00  0.00     0.123 A 
ATOM     40  C   UNL     1       9.409   0.746   0.861  1.00  0.00     0.007 A 
ATOM     41  C   UNL     1       7.510  -1.345   0.858  1.00  0.00     0.047 A 
ATOM     42  C   UNL     1       9.763  -0.537   1.287  1.00  0.00     0.001 A 
ATOM     43  C   UNL     1       8.819  -1.577   1.286  1.00  0.00     0.004 A 
ENDBRANCH  34  35
ENDBRANCH  33  34
ENDBRANCH  32  33
ENDBRANCH  31  32
ENDBRANCH  30  31
ENDBRANCH   2  25
TORSDOF 11
