REMARK SMILES CC(C)(CC1CCOCC1)c1cc(N)c(F)c(C2=NC(=O)C(N3CC[C@@H](CNCc4ccccc4)C3)=C2)c1
REMARK SMILES IDX 18 1 19 2 20 3 22 4 37 5 21 6 17 7 11 8 38 9 12 10 13 11
REMARK SMILES IDX 15 12 16 13 2 14 1 15 3 16 4 17 5 18 6 19 10 20 7 21 9 22
REMARK SMILES IDX 8 23 14 24 23 27 24 28 36 29 25 30 26 31 27 32 28 33 29 35
REMARK SMILES IDX 30 36 31 37 35 38 32 39 34 40 33 41
REMARK H PARENT 14 25 14 26 28 34
ROOT
ATOM      1  C   UNL     1      -0.544   0.185   0.214  1.00  0.00     0.080 C 
ATOM      2  N   UNL     1      -0.384   1.189  -0.596  1.00  0.00    -0.207 NA
ATOM      3  C   UNL     1       0.961   1.459  -0.622  1.00  0.00     0.293 C 
ATOM      4  C   UNL     1       1.665   0.476   0.282  1.00  0.00     0.107 C 
ATOM      5  C   UNL     1       0.703  -0.288   0.809  1.00  0.00     0.061 C 
ATOM      6  O   UNL     1       1.505   2.336  -1.275  1.00  0.00    -0.265 OA
ENDROOT
BRANCH   1   7
ATOM      7  C   UNL     1      -1.867  -0.423   0.481  1.00  0.00     0.039 A 
ATOM      8  C   UNL     1      -4.297  -0.335   0.056  1.00  0.00    -0.039 A 
ATOM      9  C   UNL     1      -2.992   0.167  -0.126  1.00  0.00     0.017 A 
ATOM     10  C   UNL     1      -4.428  -1.500   0.836  1.00  0.00     0.033 A 
ATOM     11  C   UNL     1      -3.319  -2.135   1.412  1.00  0.00     0.069 A 
ATOM     12  C   UNL     1      -2.052  -1.556   1.266  1.00  0.00     0.155 A 
ATOM     13  F   UNL     1      -1.022  -2.162   1.878  1.00  0.00    -0.204 F 
BRANCH   8  14
ATOM     14  C   UNL     1      -5.521   0.340  -0.637  1.00  0.00    -0.010 C 
ATOM     15  C   UNL     1      -5.356   1.879  -0.667  1.00  0.00     0.016 C 
ATOM     16  C   UNL     1      -5.524  -0.208  -2.080  1.00  0.00     0.016 C 
BRANCH  14  17
ATOM     17  C   UNL     1      -6.863  -0.028   0.101  1.00  0.00     0.015 C 
BRANCH  17  18
ATOM     18  C   UNL     1      -8.141   0.836  -0.083  1.00  0.00    -0.006 C 
ATOM     19  C   UNL     1      -9.262   0.320   0.845  1.00  0.00     0.032 C 
ATOM     20  C   UNL     1      -8.714   0.899  -1.504  1.00  0.00     0.032 C 
ATOM     21  C   UNL     1      -9.899  -0.965   0.320  1.00  0.00     0.160 C 
ATOM     22  C   UNL     1      -9.332  -0.426  -1.924  1.00  0.00     0.160 C 
ATOM     23  O   UNL     1     -10.369  -0.799  -1.017  1.00  0.00    -0.381 OA
ENDBRANCH  17  18
ENDBRANCH  14  17
ENDBRANCH   8  14
BRANCH  11  24
ATOM     24  N   UNL     1      -3.516  -3.218   2.291  1.00  0.00    -0.396 N 
ATOM     25  H   UNL     1      -2.667  -3.757   2.456  1.00  0.00     0.156 HD
ATOM     26  H   UNL     1      -4.313  -3.804   2.061  1.00  0.00     0.156 HD
ENDBRANCH  11  24
ENDBRANCH   1   7
BRANCH   4  27
ATOM     27  N   UNL     1       3.039   0.424   0.465  1.00  0.00    -0.367 N 
ATOM     28  C   UNL     1       3.743  -0.600   1.232  1.00  0.00     0.117 C 
ATOM     29  C   UNL     1       3.991   1.251  -0.289  1.00  0.00     0.121 C 
ATOM     30  C   UNL     1       5.142  -0.628   0.627  1.00  0.00     0.028 C 
ATOM     31  C   UNL     1       5.373   0.828   0.225  1.00  0.00     0.024 C 
BRANCH  31  32
ATOM     32  C   UNL     1       6.463   1.018  -0.832  1.00  0.00     0.086 C 
BRANCH  32  33
ATOM     33  N   UNL     1       7.761   0.585  -0.315  1.00  0.00    -0.312 NA
ATOM     34  H   UNL     1       8.040   1.179   0.467  1.00  0.00     0.123 HD
BRANCH  33  35
ATOM     35  C   UNL     1       8.795   0.670  -1.350  1.00  0.00     0.116 C 
BRANCH  35  36
ATOM     36  C   UNL     1      10.152   0.267  -0.819  1.00  0.00    -0.034 A 
ATOM     37  C   UNL     1      11.285   1.048  -1.092  1.00  0.00     0.005 A 
ATOM     38  C   UNL     1      10.316  -0.923  -0.094  1.00  0.00     0.005 A 
ATOM     39  C   UNL     1      12.545   0.657  -0.633  1.00  0.00     0.000 A 
ATOM     40  C   UNL     1      11.575  -1.312   0.367  1.00  0.00     0.000 A 
ATOM     41  C   UNL     1      12.689  -0.521   0.098  1.00  0.00     0.000 A 
ENDBRANCH  35  36
ENDBRANCH  33  35
ENDBRANCH  32  33
ENDBRANCH  31  32
ENDBRANCH   4  27
TORSDOF 10
