REMARK  Name = /home/user/ClaudeCode/dprE1_reproduction/data/prep/5OEL_cofactor.pdb
REMARK                            x       y       z     vdW  Elec       q    Type
REMARK                         _______ _______ _______ _____ _____    ______ ____
ATOM      1  P   UNL     1       3.374  -7.606  41.323  0.00  0.00    +0.000 P 
ATOM      2  O   UNL     1       4.230  -8.672  41.942  0.00  0.00    +0.000 OA
ATOM      3  O   UNL     1       1.890  -7.457  41.672  0.00  0.00    +0.000 OA
ATOM      4  O   UNL     1       4.065  -6.165  41.491  0.00  0.00    +0.000 OA
ATOM      5  C   UNL     1       5.496  -6.056  41.281  0.00  0.00    +0.000 C 
ATOM      6  C   UNL     1       5.886  -4.592  41.260  0.00  0.00    +0.000 C 
ATOM      7  O   UNL     1       5.352  -4.044  40.043  0.00  0.00    +0.000 OA
ATOM      8  C   UNL     1       5.299  -3.783  42.408  0.00  0.00    +0.000 C 
ATOM      9  O   UNL     1       6.234  -2.774  42.773  0.00  0.00    +0.000 OA
ATOM     10  C   UNL     1       4.128  -3.073  41.767  0.00  0.00    +0.000 C 
ATOM     11  O   UNL     1       3.852  -1.788  42.347  0.00  0.00    +0.000 OA
ATOM     12  C   UNL     1       4.651  -2.874  40.359  0.00  0.00    +0.000 C 
ATOM     13  N   UNL     1       3.537  -2.749  39.453  0.00  0.00    +0.000 N 
ATOM     14  C   UNL     1       2.635  -3.708  39.144  0.00  0.00    +0.000 A 
ATOM     15  N   UNL     1       1.733  -3.192  38.305  0.00  0.00    +0.000 NA
ATOM     16  C   UNL     1       2.047  -1.894  38.087  0.00  0.00    +0.000 A 
ATOM     17  C   UNL     1       1.494  -0.762  37.315  0.00  0.00    +0.000 A 
ATOM     18  N   UNL     1       0.392  -0.973  36.562  0.00  0.00    +0.000 N 
ATOM     19  N   UNL     1       2.115   0.436  37.338  0.00  0.00    +0.000 NA
ATOM     20  C   UNL     1       3.204   0.667  38.099  0.00  0.00    +0.000 A 
ATOM     21  N   UNL     1       3.778  -0.309  38.834  0.00  0.00    +0.000 NA
ATOM     22  C   UNL     1       3.244  -1.590  38.859  0.00  0.00    +0.000 A 
ATOM     23  N   UNL     1      11.417 -12.266  37.362  0.00  0.00    +0.000 N 
ATOM     24  C   UNL     1      12.381 -12.154  36.440  0.00  0.00    +0.000 A 
ATOM     25  O   UNL     1      12.886 -11.026  36.224  0.00  0.00    +0.000 OA
ATOM     26  N   UNL     1      12.821 -13.237  35.776  0.00  0.00    +0.000 N 
ATOM     27  C   UNL     1      12.307 -14.459  36.004  0.00  0.00    +0.000 A 
ATOM     28  O   UNL     1      12.699 -15.438  35.366  0.00  0.00    +0.000 OA
ATOM     29  C   UNL     1      11.270 -14.649  37.034  0.00  0.00    +0.000 A 
ATOM     30  N   UNL     1      10.719 -15.844  37.314  0.00  0.00    +0.000 NA
ATOM     31  C   UNL     1       9.726 -15.960  38.255  0.00  0.00    +0.000 C 
ATOM     32  C   UNL     1       9.167 -17.221  38.490  0.00  0.00    +0.000 C 
ATOM     33  C   UNL     1       8.159 -17.345  39.439  0.00  0.00    +0.000 C 
ATOM     34  C   UNL     1       7.571 -18.720  39.711  0.00  0.00    +0.000 C 
ATOM     35  C   UNL     1       7.673 -16.149  40.188  0.00  0.00    +0.000 C 
ATOM     36  C   UNL     1       6.594 -16.303  41.243  0.00  0.00    +0.000 C 
ATOM     37  C   UNL     1       8.220 -14.884  39.933  0.00  0.00    +0.000 C 
ATOM     38  C   UNL     1       9.241 -14.745  38.998  0.00  0.00    +0.000 C 
ATOM     39  N   UNL     1       9.834 -13.494  38.689  0.00  0.00    +0.000 N 
ATOM     40  C   UNL     1      10.840 -13.436  37.715  0.00  0.00    +0.000 A 
ATOM     41  C   UNL     1       9.465 -12.212  39.335  0.00  0.00    +0.000 C 
ATOM     42  C   UNL     1       8.306 -11.541  38.612  0.00  0.00    +0.000 C 
ATOM     43  O   UNL     1       8.496 -11.608  37.187  0.00  0.00    +0.000 OA
ATOM     44  C   UNL     1       8.240 -10.083  39.014  0.00  0.00    +0.000 C 
ATOM     45  O   UNL     1       8.089  -9.994  40.432  0.00  0.00    +0.000 OA
ATOM     46  C   UNL     1       7.092  -9.358  38.310  0.00  0.00    +0.000 C 
ATOM     47  O   UNL     1       7.266  -7.977  38.580  0.00  0.00    +0.000 OA
ATOM     48  C   UNL     1       5.764  -9.717  38.924  0.00  0.00    +0.000 C 
ATOM     49  O   UNL     1       4.714  -9.145  38.128  0.00  0.00    +0.000 OA
ATOM     50  P   UNL     1       3.262  -8.948  38.797  0.00  0.00    +0.000 P 
ATOM     51  O   UNL     1       2.317  -8.362  37.767  0.00  0.00    +0.000 OA
ATOM     52  O   UNL     1       2.821 -10.152  39.588  0.00  0.00    +0.000 OA
ATOM     53  O   UNL     1       3.562  -7.723  39.760  0.00  0.00    +0.000 OA
ATOM     54  H   UNL     1       6.452  -2.238  41.994  0.00  0.00    +0.000 HD
ATOM     55  H   UNL     1       4.644  -1.231  42.291  0.00  0.00    +0.000 HD
ATOM     56  H   UNL     1       0.005  -0.235  36.039  0.00  0.00    +0.000 HD
ATOM     57  H   UNL     1      -0.024  -1.865  36.537  0.00  0.00    +0.000 HD
ATOM     58  H   UNL     1      11.109 -11.445  37.811  0.00  0.00    +0.000 HD
ATOM     59  H   UNL     1      13.536 -13.133  35.107  0.00  0.00    +0.000 HD
ATOM     60  H   UNL     1       9.316 -11.149  36.948  0.00  0.00    +0.000 HD
ATOM     61  H   UNL     1       7.263 -10.428  40.697  0.00  0.00    +0.000 HD
ATOM     62  H   UNL     1       7.247  -7.830  39.539  0.00  0.00    +0.000 HD
TER 
