REMARK SMILES CCC(=O)Cc1cc(CN)c(C)c(-c2c(CCC(=O)NCC(F)F)ncc3c2[C@H]2C[C@@H](C)CC[C@H]2O3)c1
REMARK SMILES IDX 14 1 28 2 27 3 36 4 35 5 34 6 33 7 31 8 30 9 29 10 32 11
REMARK SMILES IDX 26 12 25 13 15 14 13 15 6 16 37 17 7 18 8 19 11 20 12 21
REMARK SMILES IDX 5 22 3 23 4 24 2 25 1 26 9 27 10 28 16 31 17 32 18 33 20 34
REMARK SMILES IDX 19 35 21 37 22 38 23 39 24 40
REMARK H PARENT 10 29 10 30 20 36
ROOT
ATOM      1  C   UNL     1       0.885  -0.105  -0.112  1.00  0.00     0.011 A 
ATOM      2  C   UNL     1       0.733  -0.992   0.958  1.00  0.00     0.012 A 
ATOM      3  C   UNL     1       1.838  -1.590   1.535  1.00  0.00     0.142 A 
ATOM      4  O   UNL     1       1.563  -2.446   2.561  1.00  0.00    -0.488 OA
ATOM      5  C   UNL     1       0.117  -2.565   2.552  1.00  0.00     0.181 C 
ATOM      6  C   UNL     1      -0.261  -3.950   2.022  1.00  0.00     0.046 C 
ATOM      7  C   UNL     1      -1.776  -4.156   1.975  1.00  0.00     0.007 C 
ATOM      8  C   UNL     1      -2.557  -2.880   1.628  1.00  0.00    -0.013 C 
ATOM      9  C   UNL     1      -1.689  -1.878   0.864  1.00  0.00     0.015 C 
ATOM     10  C   UNL     1      -0.489  -1.425   1.704  1.00  0.00     0.065 C 
ATOM     11  C   UNL     1      -3.816  -3.214   0.833  1.00  0.00     0.007 C 
ATOM     12  C   UNL     1       3.095  -1.302   1.074  1.00  0.00     0.158 A 
ATOM     13  N   UNL     1       3.305  -0.448   0.045  1.00  0.00    -0.257 NA
ATOM     14  C   UNL     1       2.209   0.128  -0.546  1.00  0.00     0.049 A 
ENDROOT
BRANCH   1  15
ATOM     15  C   UNL     1      -0.283   0.563  -0.708  1.00  0.00    -0.013 A 
ATOM     16  C   UNL     1      -2.019   2.275  -0.432  1.00  0.00    -0.040 A 
ATOM     17  C   UNL     1      -0.865   1.623   0.013  1.00  0.00     0.013 A 
ATOM     18  C   UNL     1      -2.561   1.905  -1.665  1.00  0.00     0.009 A 
ATOM     19  C   UNL     1      -1.991   0.871  -2.433  1.00  0.00    -0.031 A 
ATOM     20  C   UNL     1      -0.864   0.165  -1.936  1.00  0.00    -0.039 A 
ATOM     21  C   UNL     1      -0.264  -0.971  -2.740  1.00  0.00     0.045 C 
BRANCH  16  22
ATOM     22  C   UNL     1      -2.646   3.375   0.390  1.00  0.00     0.111 C 
BRANCH  22  23
ATOM     23  C   UNL     1      -3.049   2.983   1.809  1.00  0.00     0.136 C 
ATOM     24  O   UNL     1      -3.009   1.827   2.227  1.00  0.00    -0.299 OA
BRANCH  23  25
ATOM     25  C   UNL     1      -3.559   4.129   2.675  1.00  0.00     0.072 C 
ATOM     26  C   UNL     1      -3.591   3.773   4.151  1.00  0.00     0.012 C 
ENDBRANCH  23  25
ENDBRANCH  22  23
ENDBRANCH  16  22
BRANCH  19  27
ATOM     27  C   UNL     1      -2.615   0.558  -3.778  1.00  0.00     0.113 C 
BRANCH  27  28
ATOM     28  N   UNL     1      -3.458  -0.626  -3.722  1.00  0.00    -0.326 NA
ATOM     29  H   UNL     1      -4.154  -0.511  -2.989  1.00  0.00     0.119 HD
ATOM     30  H   UNL     1      -3.968  -0.727  -4.596  1.00  0.00     0.119 HD
ENDBRANCH  27  28
ENDBRANCH  19  27
ENDBRANCH   1  15
BRANCH  14  31
ATOM     31  C   UNL     1       2.513   0.981  -1.757  1.00  0.00     0.067 C 
BRANCH  31  32
ATOM     32  C   UNL     1       3.527   2.088  -1.494  1.00  0.00     0.106 C 
BRANCH  32  33
ATOM     33  C   UNL     1       4.945   1.597  -1.676  1.00  0.00     0.220 C 
ATOM     34  N   UNL     1       5.546   1.156  -0.518  1.00  0.00    -0.350 N 
ATOM     35  O   UNL     1       5.505   1.578  -2.768  1.00  0.00    -0.275 OA
ATOM     36  H   UNL     1       4.903   0.744   0.167  1.00  0.00     0.163 HD
BRANCH  34  37
ATOM     37  C   UNL     1       6.906   0.638  -0.562  1.00  0.00     0.189 C 
BRANCH  37  38
ATOM     38  C   UNL     1       7.033  -0.778  -1.130  1.00  0.00     0.361 C 
ATOM     39  F   UNL     1       8.156  -0.842  -1.891  1.00  0.00    -0.208 F 
ATOM     40  F   UNL     1       7.235  -1.645  -0.093  1.00  0.00    -0.208 F 
ENDBRANCH  37  38
ENDBRANCH  34  37
ENDBRANCH  32  33
ENDBRANCH  31  32
ENDBRANCH  14  31
TORSDOF 11
