REMARK  Name = /home/user/ClaudeCode/dprE1_reproduction/data/prep/5W0C_cofactor.pdb
REMARK                            x       y       z     vdW  Elec       q    Type
REMARK                         _______ _______ _______ _____ _____    ______ ____
ATOM      1  C   UNL     1     -25.458  58.298   4.329  0.00  0.00    +0.000 C 
ATOM      2  C   UNL     1     -22.439  62.014   3.422  0.00  0.00    +0.000 C 
ATOM      3  C   UNL     1     -23.346  61.601  -1.327  0.00  0.00    +0.000 C 
ATOM      4  C   UNL     1     -25.957  57.589  -0.466  0.00  0.00    +0.000 C 
ATOM      5  C   UNL     1     -24.578  59.349   4.504  0.00  0.00    +0.000 C 
ATOM      6  C   UNL     1     -24.114  59.892   5.781  0.00  0.00    +0.000 C 
ATOM      7  C   UNL     1     -23.282  60.914   5.531  0.00  0.00    +0.000 C 
ATOM      8  C   UNL     1     -23.200  61.076   4.088  0.00  0.00    +0.000 C 
ATOM      9  C   UNL     1     -22.519  61.792   6.559  0.00  0.00    +0.000 C 
ATOM     10  C   UNL     1     -24.544  59.354   7.164  0.00  0.00    +0.000 C 
ATOM     11  C   UNL     1     -23.626  58.242   7.631  0.00  0.00    +0.000 C 
ATOM     12  C   UNL     1     -24.055  57.817   9.016  0.00  0.00    +0.000 C 
ATOM     13  O   UNL     1     -23.186  57.792   9.931  0.00  0.00    +0.000 OA
ATOM     14  O   UNL     1     -25.264  57.506   9.192  0.00  0.00    +0.000 OA
ATOM     15  C   UNL     1     -22.439  62.245   2.058  0.00  0.00    +0.000 A 
ATOM     16  C   UNL     1     -21.733  63.316   1.361  0.00  0.00    +0.000 A 
ATOM     17  C   UNL     1     -21.993  63.190   0.051  0.00  0.00    +0.000 A 
ATOM     18  C   UNL     1     -22.875  62.051  -0.113  0.00  0.00    +0.000 A 
ATOM     19  C   UNL     1     -20.829  64.376   2.054  0.00  0.00    +0.000 C 
ATOM     20  C   UNL     1     -21.516  64.020  -1.176  0.00  0.00    +0.000 C 
ATOM     21  C   UNL     1     -20.661  65.052  -1.145  0.00  0.00    +0.000 C 
ATOM     22  C   UNL     1     -24.038  60.422  -1.540  0.00  0.00    +0.000 C 
ATOM     23  C   UNL     1     -24.341  59.807  -2.817  0.00  0.00    +0.000 C 
ATOM     24  C   UNL     1     -25.050  58.687  -2.588  0.00  0.00    +0.000 C 
ATOM     25  C   UNL     1     -25.255  58.566  -1.153  0.00  0.00    +0.000 C 
ATOM     26  C   UNL     1     -23.881  60.341  -4.189  0.00  0.00    +0.000 C 
ATOM     27  C   UNL     1     -25.550  57.742  -3.695  0.00  0.00    +0.000 C 
ATOM     28  C   UNL     1     -25.709  56.437  -3.477  0.00  0.00    +0.000 C 
ATOM     29  C   UNL     1     -26.109  57.467   0.908  0.00  0.00    +0.000 A 
ATOM     30  C   UNL     1     -26.965  56.509   1.597  0.00  0.00    +0.000 A 
ATOM     31  C   UNL     1     -26.819  56.681   2.918  0.00  0.00    +0.000 A 
ATOM     32  C   UNL     1     -25.879  57.775   3.121  0.00  0.00    +0.000 A 
ATOM     33  C   UNL     1     -27.866  55.456   0.913  0.00  0.00    +0.000 C 
ATOM     34  C   UNL     1     -27.534  55.865   4.036  0.00  0.00    +0.000 C 
ATOM     35  C   UNL     1     -26.533  54.804   4.489  0.00  0.00    +0.000 C 
ATOM     36  C   UNL     1     -26.949  53.939   5.663  0.00  0.00    +0.000 C 
ATOM     37  O   UNL     1     -26.394  52.810   5.773  0.00  0.00    +0.000 OA
ATOM     38  O   UNL     1     -27.830  54.363   6.456  0.00  0.00    +0.000 OA
ATOM     39  N   UNL     1     -23.997  60.101   3.502  0.00  0.00    +0.000 N 
ATOM     40  N   UNL     1     -23.148  61.501   1.128  0.00  0.00    +0.000 N 
ATOM     41  N   UNL     1     -24.612  59.640  -0.565  0.00  0.00    +0.000 N 
ATOM     42  N   UNL     1     -25.460  58.227   1.881  0.00  0.00    +0.000 N 
ATOM     43 FE   UNL     1     -24.242  59.783   1.470  0.00  0.00    +0.000 Fe
TER 
