REMARK SMILES CN1[C@H](CNC(=O)C(C)(C)c2cc(N)c(CCC(F)F)c(-c3cc4c(cn3)OCC4)c2)C[C@H]2CCCC[C@@H]21
REMARK SMILES IDX 11 1 31 2 21 3 15 4 13 5 12 6 8 7 9 8 10 9 6 10 5 11 7 12
REMARK SMILES IDX 4 14 3 15 2 16 38 17 32 18 37 19 33 20 36 21 34 22 35 23
REMARK SMILES IDX 1 24 22 25 27 26 23 27 26 28 24 29 25 30 30 31 28 32 29 33
REMARK SMILES IDX 14 34 16 37 17 38 18 39 19 40 20 41
REMARK H PARENT 5 13 14 35 14 36
ROOT
ATOM      1  C   UNL     1      -1.246   0.018   0.287  1.00  0.00    -0.030 A 
ATOM      2  C   UNL     1      -2.417   0.761   0.488  1.00  0.00     0.015 A 
ATOM      3  C   UNL     1      -3.649   0.411  -0.105  1.00  0.00     0.006 A 
ATOM      4  C   UNL     1      -3.719  -0.734  -0.939  1.00  0.00    -0.015 A 
ATOM      5  C   UNL     1      -2.574  -1.544  -1.088  1.00  0.00     0.036 A 
ATOM      6  C   UNL     1      -1.358  -1.130  -0.516  1.00  0.00     0.030 A 
ENDROOT
BRANCH   1   7
ATOM      7  C   UNL     1       0.112   0.412   0.902  1.00  0.00     0.068 C 
ATOM      8  C   UNL     1       0.502  -0.632   1.970  1.00  0.00     0.026 C 
ATOM      9  C   UNL     1       0.081   1.780   1.633  1.00  0.00     0.026 C 
BRANCH   7  10
ATOM     10  C   UNL     1       1.191   0.570  -0.215  1.00  0.00     0.230 C 
ATOM     11  N   UNL     1       1.926  -0.558  -0.536  1.00  0.00    -0.354 N 
ATOM     12  O   UNL     1       1.350   1.626  -0.829  1.00  0.00    -0.274 OA
ATOM     13  H   UNL     1       2.021  -1.276   0.167  1.00  0.00     0.163 HD
BRANCH  11  14
ATOM     14  C   UNL     1       3.022  -0.471  -1.489  1.00  0.00     0.135 C 
BRANCH  14  15
ATOM     15  C   UNL     1       4.308   0.076  -0.836  1.00  0.00     0.076 C 
ATOM     16  N   UNL     1       4.945  -0.721   0.264  1.00  0.00    -0.298 NA
ATOM     17  C   UNL     1       6.311  -0.159   0.296  1.00  0.00     0.059 C 
ATOM     18  C   UNL     1       5.423   0.381  -1.861  1.00  0.00     0.026 C 
ATOM     19  C   UNL     1       7.422  -0.835   1.099  1.00  0.00     0.019 C 
ATOM     20  C   UNL     1       6.705  -0.075  -1.177  1.00  0.00     0.008 C 
ATOM     21  C   UNL     1       8.719  -0.025   0.945  1.00  0.00     0.002 C 
ATOM     22  C   UNL     1       7.941   0.798  -1.352  1.00  0.00     0.005 C 
ATOM     23  C   UNL     1       9.098   0.223  -0.523  1.00  0.00     0.000 C 
ATOM     24  C   UNL     1       4.913  -2.166   0.056  1.00  0.00     0.106 C 
ENDBRANCH  14  15
ENDBRANCH  11  14
ENDBRANCH   7  10
ENDBRANCH   1   7
BRANCH   3  25
ATOM     25  C   UNL     1      -4.805   1.284   0.155  1.00  0.00     0.071 A 
ATOM     26  N   UNL     1      -4.801   2.472  -0.518  1.00  0.00    -0.252 NA
ATOM     27  C   UNL     1      -5.809   0.923   1.056  1.00  0.00     0.036 A 
ATOM     28  C   UNL     1      -5.836   3.321  -0.310  1.00  0.00     0.158 A 
ATOM     29  C   UNL     1      -6.857   1.808   1.220  1.00  0.00     0.001 A 
ATOM     30  C   UNL     1      -6.871   3.007   0.535  1.00  0.00     0.140 A 
ATOM     31  C   UNL     1      -8.032   1.748   2.117  1.00  0.00     0.081 C 
ATOM     32  O   UNL     1      -7.955   3.793   0.813  1.00  0.00    -0.491 OA
ATOM     33  C   UNL     1      -8.852   2.885   1.504  1.00  0.00     0.234 C 
ENDBRANCH   3  25
BRANCH   5  34
ATOM     34  N   UNL     1      -2.543  -2.639  -1.969  1.00  0.00    -0.398 N 
ATOM     35  H   UNL     1      -1.771  -3.276  -1.803  1.00  0.00     0.156 HD
ATOM     36  H   UNL     1      -3.421  -3.131  -2.068  1.00  0.00     0.156 HD
ENDBRANCH   5  34
BRANCH   4  37
ATOM     37  C   UNL     1      -5.001  -1.063  -1.685  1.00  0.00     0.044 C 
BRANCH  37  38
ATOM     38  C   UNL     1      -5.837  -2.127  -0.978  1.00  0.00     0.078 C 
BRANCH  38  39
ATOM     39  C   UNL     1      -7.162  -2.334  -1.683  1.00  0.00     0.342 C 
ATOM     40  F   UNL     1      -7.926  -1.220  -1.568  1.00  0.00    -0.211 F 
ATOM     41  F   UNL     1      -7.842  -3.331  -1.061  1.00  0.00    -0.211 F 
ENDBRANCH  38  39
ENDBRANCH  37  38
ENDBRANCH   4  37
TORSDOF 9
